ITEM: TIMESTEP
0
ITEM: NUMBER OF ATOMS
5127
ITEM: BOX BOUNDS pp pp pp
-3.6953550211631679e+01 3.5730740240055326e+01
-3.8361678593810538e+01 3.5525680565432296e+01
-7.7089364501288273e+01 7.7089364501288273e+01
ITEM: ATOMS id type xu yu zu
81302 6 -35.3132 -36.3521 -4.56186
78594 5 -36.6124 -37.9402 -0.661693
76186 4 -32.7335 -37.8614 -3.96546
79681 5 -32.9792 -37.791 -5.47415
76293 4 -36.3051 -34.3338 -1.51084
78590 5 -31.1961 -35.0079 -4.85772
79442 5 -32.9989 -33.3992 -4.11317
79515 5 -33.4148 -35.7422 -4.79345
79657 5 -36.487 -34.9933 -3.66177
79724 5 -35.6327 -37.2731 -4.58877
80168 6 -30.478 -35.6421 -5.23779
81020 6 -32.5454 -32.5116 -4.28548
81093 6 -32.8242 -34.9803 -4.99397
76302 4 -32.6068 -33.5002 -2.68399
76303 4 -32.5335 -32.02 -2.3734
76188 4 -31.3307 -35.5649 -3.44496
76187 4 -32.7368 -36.3229 -3.56985
76301 3 -31.342 -34.2391 -2.73211
76180 4 -36.4052 -35.6438 -2.30636
76297 4 -33.7203 -34.3646 -2.08745
76299 3 -35.1313 -32.0283 -2.17959
76183 3 -35.151 -36.5392 -2.52353
76184 3 -33.8478 -35.8199 -2.62723
76304 4 -31.5637 -31.6692 -1.18198
76298 4 -35.0058 -33.5333 -1.63347
78926 5 -33.1883 -34.7628 -0.75973
79390 5 -31.7033 -31.401 -3.44691
81259 6 -32.8641 -36.8435 -5.58813
76182 4 -35.318 -37.8845 -3.18638
81160 6 -30.6552 -32.5519 -3.85208
76307 4 -30.1868 -32.3822 -1.29977
79245 5 -30.2306 -37.0658 -5.48833
80504 6 -32.6344 -35.5509 -0.924652
76191 3 -30.0725 -36.3732 -3.3893
76306 4 -30.0787 -33.5771 -2.29332
76190 4 -30.0049 -37.7134 -4.14018
76300 4 -33.8732 -31.3008 -2.43776
76296 4 -36.4642 -31.2539 -2.22519
80772 6 -34.7195 -30.6678 -4.2188
79582 5 -29.7937 -32.8768 -3.56521
79194 5 -33.913 -31.0733 -3.93558
79655 5 -36.6997 -30.567 -0.933642
80369 6 -36.5881 -29.832 -4.96847
80968 6 -32.3441 -30.8309 -3.88718
80381 6 -35.4671 -30.1003 -0.407957
78791 5 -36.0355 -30.3569 -4.37605
76417 4 -31.6185 -30.213 -0.686716
76418 4 -32.6829 -29.2645 -1.35821
76413 4 -33.9843 -29.9437 -1.83052
76409 4 -36.4183 -29.8569 -3.00165
78803 5 -34.4924 -30.2406 -0.469883
76422 3 -30.3423 -29.4885 -0.442401
81107 6 -33.7734 -33.3595 -0.110895
78582 5 -32.3137 -32.3927 -0.159065
78312 5 -36.2143 -35.0001 -0.176639
79529 5 -34.7013 -33.1217 -0.206468
78884 5 -30.2086 -33.1801 -0.0574266
80592 6 -27.3474 -38.1964 -5.76992
79014 5 -28.2834 -38.2034 -5.80911
80823 6 -29.4683 -37.1786 -6.04094
76197 4 -23.36 -38.1785 -3.60498
81067 6 -27.4542 -38.0828 -1.57773
76309 3 -26.343 -34.4962 -1.59917
76310 3 -27.6184 -33.7723 -1.53368
78241 5 -25.4223 -35.0619 -4.32616
79358 5 -23.4529 -33.8941 -3.52622
79580 5 -28.3367 -35.0551 -4.29409
79593 5 -24.4551 -36.8894 -5.2777
79616 5 -25.0273 -32.0837 -2.46253
79819 6 -25.0577 -35.5986 -5.08775
81158 6 -28.8175 -34.2064 -4.45203
81171 6 -24.7279 -37.5482 -5.86572
76200 4 -23.6461 -35.2034 -2.80432
76198 4 -24.7456 -37.4236 -3.84802
76199 4 -24.9474 -35.9751 -3.19298
76192 4 -28.755 -35.6696 -2.97073
76195 4 -27.4988 -36.5006 -2.80897
76305 3 -28.8722 -34.4029 -2.12531
76194 3 -27.3541 -37.6472 -3.77598
76196 3 -26.2338 -35.7521 -2.42241
76308 4 -28.9764 -31.5203 -1.17194
76315 4 -25.1067 -32.2194 -1.04411
79489 5 -27.8207 -37.2124 -1.54042
76313 4 -23.727 -34.507 -1.39202
76312 3 -26.3976 -31.5511 -0.81632
76314 4 -25.0922 -33.8652 -1.06085
76311 4 -27.6691 -32.3285 -0.926112
76316 4 -23.8527 -31.475 -0.48791
78446 5 -23.9247 -35.86 -0.676642
80129 6 -28.9213 -31.7499 -3.10491
80936 6 -24.2831 -33.884 -4.07799
80466 6 -22.856 -37.7476 -5.48972
76319 4 -22.5324 -32.1973 -0.289634
81194 6 -24.4912 -31.3154 -2.7181
76193 4 -26.009 -38.3193 -3.83312
78551 5 -28.6129 -31.0217 -2.55735
76426 3 -27.7723 -29.404 -0.395427
76425 4 -26.4622 -30.076 -0.41028
76421 3 -29.058 -30.1286 -0.608645
76429 4 -23.8329 -29.9445 -0.953921
78238 5 -23.2784 -30.357 -2.29402
78833 5 -25.509 -29.6561 -2.46744
76430 4 -25.3068 -29.2852 -1.05038
79816 6 -23.2044 -29.5083 -2.71567
80024 6 -23.1683 -36.01 -0.0671149
76328 4 -16.162 -30.996 -0.25766
79113 5 -18.6834 -35.7165 -0.164182
76209 4 -15.8553 -38.3395 -1.57373
76318 4 -22.3838 -33.7346 -0.853521
78316 5 -20.0935 -38.1616 -1.23054
79413 5 -22.3164 -35.6555 -4.64374
80991 6 -21.6396 -34.9373 -4.76138
78698 5 -17.8516 -37.9647 -0.496969
76205 4 -18.2164 -38.213 -2.72202
80355 6 -17.895 -37.913 -4.66839
76201 4 -20.7586 -38.0761 -3.42507
76325 3 -15.9817 -33.918 -1.04442
76210 4 -17.1117 -37.6125 -1.79634
76212 4 -15.8345 -35.2672 -1.72233
76206 4 -19.6353 -37.5483 -2.50175
78475 5 -20.4573 -34.6223 -3.93512
78767 5 -16.6502 -32.4995 -2.68222
78777 5 -17.7776 -37.3477 -3.90078
79036 5 -21.466 -32.8667 -2.70649
79196 5 -20.3042 -37.4649 -4.73519
79230 5 -18.6888 -33.4755 -2.98587
79427 5 -15.8482 -34.8437 -3.13155
80053 6 -19.9134 -33.8574 -3.65044
80345 6 -16.2065 -33.2778 -3.07982
80614 6 -22.1585 -33.327 -3.23925
80808 6 -18.0367 -32.831 -3.21148
76203 4 -22.2357 -35.8351 -3.20054
76204 4 -20.8867 -35.1969 -2.6003
76202 3 -22.1349 -37.3865 -3.31327
76207 3 -19.6554 -36.0722 -2.262
76317 4 -21.1223 -33.9258 -1.68895
76321 4 -18.4928 -33.8403 -1.56522
76211 3 -17.125 -36.0984 -1.73248
76208 4 -18.4668 -35.4013 -1.60807
76326 4 -17.222 -33.0696 -1.32739
76322 4 -19.8489 -33.3175 -0.970277
76327 3 -17.3678 -31.7108 -0.764537
76323 4 -19.9145 -31.8278 -0.530641
80483 6 -15.8072 -31.1713 -2.29798
76320 3 -21.2649 -31.2023 -0.466132
80774 6 -20.9309 -36.7726 -5.00314
76324 4 -18.6721 -30.9478 -0.934509
78233 5 -18.7168 -30.8676 -2.37838
80691 6 -18.2017 -36.5449 -0.0462693
79811 6 -18.0893 -30.1072 -2.60623
80589 6 -19.8592 -29.7773 -2.48097
76437 3 -18.7969 -29.487 -0.568395
78905 5 -15.4002 -30.7264 -1.51679
76433 4 -21.3715 -29.7152 -0.318913
80522 6 -15.1866 -29.27 -1.56594
76213 3 -13.3151 -38.3522 -1.00737
76221 3 -8.42664 -38.3084 -0.290327
76218 3 -12.2254 -37.6358 -0.336512
80767 6 -10.2534 -37.6422 -2.64604
81005 6 -14.9235 -35.0094 -3.43996
76339 4 -9.8448 -31.7349 -0.313952
76224 4 -8.52285 -35.4866 -0.571824
76223 4 -9.79361 -36.1929 -1.00411
76215 4 -14.5047 -35.9938 -1.54207
78261 5 -13.1883 -33.3919 -1.75619
78332 5 -11.7378 -31.5245 -1.86735
79074 5 -14.0866 -37.7261 -3.11264
79151 5 -13.5897 -35.5345 -2.66332
79320 5 -9.90726 -35.9553 -2.40951
79372 5 -9.44478 -31.5289 -1.7765
79839 6 -13.3339 -34.0997 -2.3616
80729 6 -13.4723 -36.3167 -3.21098
80898 6 -9.4887 -35.1121 -2.61118
80950 6 -10.1979 -31.893 -2.27524
76214 4 -14.4807 -37.5616 -1.65943
76222 4 -9.72645 -37.7583 -0.739437
79910 6 -12.4636 -32.1396 -1.77848
78461 5 -8.58255 -33.7677 -1.99725
76337 4 -8.50214 -33.9408 -0.524742
76329 4 -13.5329 -33.9328 -0.35011
76216 4 -13.623 -35.4384 -0.388707
76220 3 -11.0816 -35.4326 -0.486632
76336 4 -11.2315 -31.083 -0.488873
79847 6 -8.02316 -31.3193 -1.77829
76330 3 -14.8792 -33.2845 -0.275436
76333 3 -11.0697 -33.9871 -0.232025
80652 6 -14.8504 -38.1167 -3.4757
79412 5 -11.1893 -29.3191 -2.23448
80990 6 -11.4732 -30.1863 -2.66203
76449 4 -11.2243 -29.5443 -0.695752
80319 6 -9.64603 -29.2989 -2.44652
76338 4 -9.78945 -33.2305 -0.115716
76219 4 -12.3062 -36.1977 -0.101733
76217 4 -10.9769 -38.333 -0.0291751
80195 6 -0.997141 -29.9593 -1.11802
76225 3 -5.92329 -38.3369 -0.962425
80039 6 -7.70856 -33.6039 -2.37492
78386 5 -4.39834 -38.336 -2.73023
76226 4 -7.12265 -37.5543 -0.473315
80252 6 -1.57771 -33.6272 -2.30597
78674 5 -1.00361 -33.1797 -1.61469
76350 4 -1.93914 -32.9886 -0.416777
80143 6 -1.9557 -31.8759 -2.11593
76229 3 -3.40453 -38.2338 -0.662876
76227 3 -7.23497 -36.1588 -0.853544
78269 5 -7.13165 -31.4097 -1.37746
78423 5 -2.5588 -35.3166 -2.63199
78436 5 -6.45621 -34.6359 -2.41585
78785 5 -4.61454 -36.0537 -3.10539
78904 5 -5.16123 -32.5282 -1.96707
79102 5 -1.99627 -37.5781 -2.34605
79599 5 -3.05534 -32.9639 -2.43135
80001 6 -1.90328 -36.0373 -2.6142
80014 6 -5.89274 -35.0677 -3.0275
80363 6 -3.71476 -35.73 -3.34244
80482 6 -5.8702 -31.8567 -1.8961
81177 6 -3.96639 -32.8006 -2.73555
76346 4 -4.61793 -32.9706 -0.69325
76228 4 -5.99935 -35.2827 -1.14554
76230 4 -4.62778 -37.6655 -1.3674
76231 4 -4.64248 -36.0214 -1.60978
76232 4 -3.22784 -35.1976 -1.29431
76345 4 -3.26087 -33.627 -1.03071
76234 4 -2.09246 -37.4738 -0.832533
76235 3 -2.14534 -36.0203 -0.580847
79964 6 -4.29654 -37.5548 -3.33044
76341 4 -5.84766 -33.985 -0.341211
76233 3 -0.784799 -38.2211 -0.617526
78565 5 -1.81997 -31.0392 -1.51513
76351 4 -2.0049 -31.4661 -0.0560496
80518 6 -2.87771 -29.7089 -1.48056
78940 5 -3.59709 -29.712 -0.809642
79337 5 -5.90774 -29.2838 -0.862093
80915 6 -4.99562 -29.264 -1.09988
76419 4 -32.9198 -27.9469 -0.623731
76529 3 -34.0191 -25.651 -0.65142
76416 3 -34.0447 -27.0666 -1.04567
76415 3 -35.1858 -27.6319 -1.79015
78947 5 -32.081 -28.8533 -2.69324
79364 5 -31.485 -26.4504 -1.34104
79650 5 -34.4097 -28.5908 -3.71947
79705 5 -36.0012 -25.0654 -3.12035
80525 6 -32.7968 -28.9119 -3.33604
80942 6 -30.5556 -26.3217 -1.55931
81228 6 -34.9117 -28.2476 -4.43028
81283 6 -36.5815 -25.5867 -3.68846
76414 4 -35.0839 -29.034 -2.46767
76412 4 -36.5396 -27.002 -1.68872
76530 3 -35.1569 -24.7985 -1.00356
76525 4 -36.3655 -25.4249 -1.73088
78275 5 -31.1166 -23.3401 -1.10901
76531 4 -35.1901 -23.3792 -0.500891
79853 6 -31.7752 -22.8246 -1.53076
79891 6 -36.2602 -22.1698 -3.18342
76528 4 -36.3305 -22.454 -0.973371
78289 5 -30.4978 -20.9367 -0.809656
78313 5 -35.9272 -21.2665 -3.03241
78391 5 -34.0945 -20.0355 -2.68617
79362 5 -32.744 -21.6918 -1.82917
79969 6 -34.7517 -20.382 -3.36876
80940 6 -32.7201 -20.9321 -2.46455
76645 4 -33.5813 -21.2852 -0.704812
76641 4 -36.0949 -21.0547 -1.62721
76646 4 -34.6667 -20.3242 -1.3778
79867 6 -30.331 -21.7345 -1.34022
76532 3 -33.8994 -22.7686 -0.177388
76420 4 -31.6292 -27.2624 -0.131312
76545 4 -23.9472 -25.4051 -0.179505
78736 5 -24.2072 -26.0017 -2.40566
79073 5 -27.1044 -25.9566 -1.15149
79297 5 -25.9881 -27.46 -2.42237
79509 5 -29.2269 -26.5658 -0.98043
80314 6 -23.6494 -26.506 -3.01827
80411 6 -26.0354 -28.9925 -2.90474
80651 6 -27.1728 -26.3897 -2.07895
80875 6 -25.4315 -26.7932 -2.83428
81087 6 -28.6195 -25.8171 -1.04395
76432 4 -24.0537 -26.7439 -1.13321
76431 4 -25.4063 -27.6437 -1.04536
76550 4 -22.8693 -24.3408 -0.543678
78462 5 -22.8007 -27.9754 -2.67147
78187 5 -25.9533 -23.9835 -0.281078
76434 4 -22.734 -29.0003 -0.550554
76435 4 -22.686 -27.4999 -1.29028
79765 6 -26.438 -24.488 -0.948529
80670 6 -23.3311 -24.2722 -2.39536
79092 5 -23.693 -23.7206 -1.66887
80837 6 -29.6816 -24.2395 -1.0634
79259 5 -29.173 -24.2642 -0.200921
79159 5 -22.9793 -21.8962 -0.385944
80737 6 -23.5553 -22.2949 -1.09024
76428 4 -26.5769 -27.0308 -0.25035
80267 6 -28.0936 -20.831 -0.167553
80040 6 -21.9931 -27.5761 -2.94513
78308 5 -20.9412 -26.7455 -2.71295
78507 5 -16.5503 -24.7207 -1.95586
78671 5 -18.5492 -25.7891 -2.30236
78790 5 -21.8075 -24.6232 -2.6295
79011 5 -20.1786 -28.9077 -2.24744
79886 6 -20.2408 -27.3495 -2.7216
80085 6 -17.0977 -25.3773 -2.50884
80249 6 -18.9147 -25.0426 -2.83194
80368 6 -21.1453 -25.0279 -3.17887
76558 4 -17.365 -24.358 -0.751241
76436 4 -21.3691 -26.6345 -1.23107
76549 4 -21.4849 -25.0499 -1.25948
76553 4 -18.7422 -25.1478 -0.920091
76554 4 -19.9895 -24.3056 -1.20428
76439 3 -20.1461 -27.3299 -0.60594
76438 4 -20.0904 -28.82 -0.74039
76440 3 -18.9034 -26.5402 -0.284631
78944 5 -15.5145 -28.5004 -1.06348
79274 5 -19.6679 -23.8952 -2.56291
78220 5 -20.8326 -20.3453 -0.169835
80852 6 -20.3185 -23.1791 -2.70006
80093 6 -16.5949 -23.252 -2.49315
78326 5 -18.8523 -20.986 -1.42539
78515 5 -17.3016 -22.579 -2.21823
79723 5 -20.9007 -22.2684 -1.63563
79798 6 -20.0862 -20.1201 -0.769619
79904 6 -18.381 -21.3611 -2.17929
81301 6 -21.3455 -21.5875 -1.08085
76555 4 -20.0446 -22.8817 -0.57057
76559 4 -17.3509 -22.6943 -0.728228
78609 5 -15.9249 -20.8153 -1.2189
76556 4 -18.6778 -22.0274 -0.370452
80187 6 -15.7627 -21.3852 -1.91693
76560 4 -16.0759 -21.871 -0.196692
76448 4 -13.8159 -26.5492 -0.0635167
76572 4 -8.47415 -22.0198 -0.0607743
76455 4 -9.87559 -27.1803 -0.322951
78158 5 -9.61713 -26.6487 -1.66929
78741 5 -8.99476 -28.9881 -1.72373
78816 5 -14.4072 -26.6842 -1.47156
79012 5 -13.2576 -28.8451 -1.61367
79167 5 -13.1002 -24.8759 -1.40515
79736 6 -8.93273 -27.2132 -1.9898
80394 6 -14.5401 -27.6711 -1.55677
80590 6 -12.6154 -28.8021 -2.38821
80745 6 -13.7309 -25.436 -1.84538
76454 4 -9.83192 -28.7927 -0.492314
76450 4 -12.5123 -28.8145 -0.337572
76561 4 -13.7015 -25.0316 -0.0286563
80783 6 -11.6589 -23.7296 -1.44234
81125 6 -9.58882 -22.7527 -1.88289
79547 5 -9.90527 -23.4774 -1.31253
76563 4 -14.8404 -22.7043 -0.238106
79797 6 -13.5622 -22.8377 -1.72794
78219 5 -14.542 -22.7186 -1.69072
78422 5 -11.1463 -20.9814 -0.769036
79205 5 -12.1809 -22.8719 -1.21133
80000 6 -11.6886 -21.3226 -1.4745
80219 6 -9.87014 -20.1279 -0.620815
79034 5 -8.53993 -21.4475 -1.45666
76562 3 -14.9851 -24.2421 -0.0337451
81181 6 -7.14838 -28.3553 -1.52074
79153 5 -5.6286 -24.9208 -1.32445
79203 5 -5.12872 -27.054 -1.0227
79603 5 -7.32379 -27.397 -1.40227
80262 6 -3.52898 -27.0145 -0.727655
80731 6 -4.69597 -24.7141 -1.3969
80781 6 -5.62786 -26.4995 -1.65031
78684 5 -2.7514 -27.1385 -0.140833
80929 6 -6.31164 -23.665 -1.76001
80612 6 -7.81451 -21.9953 -1.82235
78536 5 -1.12434 -20.5437 -0.431658
80360 6 -1.79975 -21.9042 -0.82552
79351 5 -7.11774 -23.1685 -1.51613
78782 5 -2.11878 -22.7874 -0.634963
78890 5 -5.17865 -21.6815 -1.17565
80468 6 -5.01619 -20.7673 -1.00549
76575 4 -7.15212 -22.8137 -0.0881157
79868 6 -32.6864 -31.1215 0.807122
80160 6 -31.5908 -32.9097 0.240482
80045 6 -36.7312 -33.4516 0.324377
80683 6 -31.4115 -29.2254 1.57922
78290 5 -32.1407 -30.3252 0.722606
80948 6 -33.6513 -29.2582 0.627756
79890 6 -35.2754 -34.838 0.0518651
79047 5 -27.9066 -32.6739 0.517118
80625 6 -27.0399 -33.103 0.755867
78939 5 -24.2798 -31.3434 0.948218
81089 6 -24.9378 -34.9014 0.524041
79511 5 -25.259 -33.9665 0.437076
80517 6 -23.6016 -31.7471 1.45243
80462 6 -29.3572 -33.122 0.305811
80078 6 -25.7052 -30.8848 1.17393
78500 5 -26.2099 -30.0873 1.06581
80937 6 -22.3744 -33.411 1.25056
79359 5 -22.2772 -32.4583 1.18426
78288 5 -19.595 -31.6843 0.911352
79866 6 -19.6883 -32.5752 1.25641
79165 5 -15.8036 -32.4044 1.56164
81223 6 -21.2324 -34.5854 0.497221
78814 5 -19.9734 -33.892 0.417092
80392 6 -19.4467 -34.7033 0.482566
79645 5 -22.1329 -34.6721 0.258021
80276 6 -17.0253 -38.1487 0.0560119
80743 6 -15.1854 -32.0832 2.27947
76441 4 -16.3757 -29.6066 0.481785
78411 5 -16.4147 -29.8094 1.90484
78881 5 -21.149 -29.6089 1.17744
80459 6 -20.6309 -30.383 1.27432
79989 6 -17.3685 -29.8845 1.94979
78538 5 -14.4534 -35.7331 0.766677
81254 6 -11.3569 -37.4009 1.56794
78734 5 -9.72645 -33.434 1.3967
78841 5 -12.1909 -36.1504 1.4053
79517 5 -12.3349 -33.6576 1.71337
79676 5 -10.5144 -37.7465 1.30004
80312 6 -10.5426 -33.7082 1.75297
80419 6 -12.0513 -35.2362 1.68856
81095 6 -12.6738 -32.9062 2.25925
79191 5 -13.6665 -31.4842 2.11978
78254 5 -8.60825 -31.3593 1.78437
79702 5 -8.66849 -35.7402 0.980006
80116 6 -13.9116 -35.7339 1.56407
79832 6 -8.92547 -32.2462 1.90948
76332 4 -13.6476 -31.1433 0.68854
76331 4 -15.037 -31.9099 0.331432
76334 4 -12.2881 -33.3031 0.283907
80536 6 -8.06742 -34.072 1.64534
76340 4 -8.62963 -30.9942 0.368572
76335 3 -12.3745 -31.8145 0.28282
81280 6 -7.88395 -36.2878 1.18574
80769 6 -13.4158 -30.6483 2.59823
78793 5 -9.69297 -29.3672 1.59757
79021 5 -13.3042 -29.2254 1.88117
80371 6 -9.30325 -29.8547 2.33828
76445 4 -13.6389 -29.5799 0.517808
76453 4 -8.71364 -29.5164 0.422791
76349 4 -1.07131 -33.8671 0.516389
78891 5 -1.94412 -33.8158 1.67526
78958 5 -7.23664 -33.5774 1.47652
78966 5 -5.85519 -31.5897 1.9465
79961 6 -5.88966 -34.5382 1.52984
78834 5 -6.62153 -37.2986 0.923342
80469 6 -1.34371 -34.0139 2.40869
78383 5 -5.19232 -34.5808 0.811444
80544 6 -6.75477 -31.8483 2.07142
78503 5 -1.07585 -36.0548 1.46136
80412 6 -7.01501 -38.0288 1.51434
76344 4 -5.89758 -31.0754 0.573624
80081 6 -2.02806 -36.011 1.59006
79860 6 -4.5454 -30.9099 2.59017
76348 4 -3.39014 -30.7919 0.170165
80867 6 -1.8885 -30.1699 3.54095
76465 4 -0.999423 -29.6451 1.90093
79289 5 -1.14617 -30.5128 3.0693
78282 5 -3.60698 -30.7888 2.40356
79855 6 -6.14196 -29.2771 2.84121
80984 6 -3.60593 -29.3583 3.25986
76461 4 -3.53667 -29.6885 1.40265
76457 4 -5.99547 -29.545 0.621142
76352 4 -0.828973 -30.8001 0.744678
76347 3 -4.60345 -31.6565 0.0641773
76236 4 -0.982142 -35.3705 0.132147
76342 4 -7.19064 -33.296 0.0307358
76343 4 -7.15589 -31.722 0.069996
76423 4 -30.4201 -28.1353 0.162968
76534 4 -32.9963 -25.1097 0.447201
78433 5 -32.145 -26.6945 2.01779
79025 5 -34.0323 -25.4038 1.53924
80011 6 -33.0583 -26.9223 1.74779
80603 6 -33.502 -24.8946 2.20229
78878 5 -30.7662 -25.0354 2.72685
79105 5 -30.6485 -28.5623 1.60196
76538 4 -30.4003 -25.3144 1.33104
80456 6 -31.2193 -25.8831 3.03871
80120 6 -35.0163 -24.3213 1.27401
76533 4 -31.7615 -26.0125 0.794553
79370 5 -33.519 -28.2785 0.735256
76539 4 -30.1122 -23.8482 0.912653
78542 5 -35.7456 -23.8218 0.920073
80622 6 -30.2548 -27.4227 2.4861
80372 6 -29.7278 -23.713 3.54059
78499 5 -36.6989 -21.775 0.354366
80077 6 -36.2821 -22.3899 1.01087
79707 5 -32.9389 -23.3378 1.96052
81285 6 -33.2625 -22.4128 2.03263
78434 5 -33.1642 -20.9709 1.51365
80012 6 -34.0363 -20.5467 1.67909
81293 6 -32.0926 -20.0481 2.8627
78216 5 -30.8452 -21.0115 2.66123
79794 6 -30.3187 -21.469 3.30747
76654 4 -30.0922 -20.7593 1.4025
76535 4 -32.8141 -23.5631 0.498488
76649 4 -31.2235 -21.425 0.385644
78794 5 -29.7707 -22.931 3.05933
76650 4 -32.5553 -20.6081 0.250207
76536 4 -31.2997 -22.9862 0.3358
76427 4 -27.7415 -27.9734 0.0852501
78932 5 -23.2078 -28.5188 0.772016
79906 6 -23.8375 -26.4601 1.44098
78366 5 -25.4671 -26.798 1.61136
79044 5 -29.4037 -26.932 2.64379
79240 5 -27.555 -28.2729 1.6102
79539 5 -27.2696 -26.2545 2.8932
76541 4 -26.3468 -25.9453 0.864964
79944 6 -25.8177 -26.7601 2.53193
80818 6 -26.9137 -28.9834 1.66638
81117 6 -27.8217 -27.0834 2.79084
79660 5 -24.2608 -24.6912 2.77979
76542 4 -27.6703 -25.4914 1.71797
76537 4 -29.1352 -26.1774 1.40963
78291 5 -28.0622 -24.3328 3.69687
76543 4 -27.693 -23.9929 2.288
81238 6 -24.6135 -24.3636 3.58204
79869 6 -27.8604 -25.2958 3.78364
78328 5 -23.1448 -26.0642 0.894963
76546 4 -25.2462 -24.8799 0.595778
76547 4 -24.9707 -23.8015 1.73613
76424 4 -29.1529 -27.2833 0.296084
80510 6 -22.521 -28.8974 1.32741
80317 6 -26.7345 -23.8153 4.35784
78739 5 -25.8672 -23.6477 3.97946
76544 4 -26.2293 -23.2552 2.56435
76540 4 -28.9955 -23.1278 1.82179
76658 4 -27.6522 -20.8527 2.23736
78765 5 -28.2707 -20.8691 3.59983
78954 5 -26.1983 -21.3928 4.13339
79647 5 -23.6076 -22.0703 3.66689
80343 6 -27.5973 -21.095 4.28828
80463 6 -25.7455 -19.9692 4.13659
80532 6 -25.4986 -22.0226 4.47925
76661 4 -23.6839 -21.5433 2.27655
76662 3 -25.0014 -20.8355 2.37656
76657 4 -26.2756 -21.6203 2.67372
76548 3 -23.7556 -22.8001 1.48853
76653 4 -28.7626 -21.6452 1.52998
81225 6 -23.4487 -23.0256 3.47521
81033 6 -22.6434 -20.8653 4.20206
76551 4 -22.6672 -23.1022 0.395941
78689 5 -28.2482 -21.7876 0.186368
78278 5 -18.6112 -28.9067 1.5842
78672 5 -16.941 -26.4617 2.05022
79264 5 -16.7084 -24.1751 1.42728
79856 6 -19.1388 -28.0691 1.65254
80250 6 -16.1718 -26.5631 2.62405
76444 4 -16.4418 -26.4919 0.644101
80842 6 -17.0946 -24.925 2.00357
78615 5 -20.8741 -24.0001 1.43867
76442 4 -17.7944 -28.7814 0.337282
80193 6 -20.5462 -23.6685 2.35977
76666 4 -22.3104 -20.7469 2.22747
76670 4 -19.9806 -20.5272 1.11353
78214 5 -17.6334 -20.2891 3.53579
78978 5 -20.2755 -22.076 2.8241
79455 5 -21.9087 -20.6105 3.64019
79792 6 -18.4662 -20.0281 3.94889
80556 6 -20.59 -21.5124 3.57669
76665 4 -21.0272 -21.5208 1.62693
76674 3 -17.4716 -20.4516 1.31836
76673 3 -16.1826 -20.9612 0.997801
76669 3 -18.6791 -21.0924 0.803081
76552 4 -21.2018 -22.7606 0.695346
78204 5 -15.2168 -21.2125 3.08847
79782 6 -16.0975 -21.0373 3.33558
76557 4 -16.3394 -24.8854 0.271689
76443 3 -17.6983 -27.2729 0.140486
76451 4 -12.4507 -27.3168 0.0517924
79788 6 -13.9417 -26.708 2.15189
76566 4 -12.3781 -24.3811 0.65747
76570 4 -9.75951 -24.2287 0.809528
78210 5 -14.7365 -27.1888 2.1569
78702 5 -12.8242 -24.6782 2.04516
79111 5 -10.8484 -25.7576 2.08815
79643 5 -12.5409 -27.2626 1.55673
79664 5 -9.01572 -27.1626 1.6917
80599 6 -13.7669 -28.4397 2.24132
80689 6 -11.7753 -25.741 2.38222
81221 6 -12.022 -27.8938 2.04675
81242 6 -9.47186 -26.4256 2.18381
76569 4 -8.4275 -25.0182 0.936297
80573 6 -10.4175 -24.1896 2.64451
76565 4 -11.0642 -25.1534 0.693034
76447 4 -15.0399 -27.2227 0.721343
80280 6 -13.23 -23.8179 2.37717
78727 5 -8.22817 -25.1906 2.41069
76456 4 -8.53977 -26.5846 0.438076
80917 6 -8.19183 -28.1228 2.37144
76446 4 -15.0669 -28.7726 0.393897
80305 6 -8.64696 -24.3427 2.71234
78995 5 -9.9497 -23.5635 2.1094
76686 4 -9.58093 -20.4457 1.87513
76678 4 -14.936 -20.4763 1.79491
76682 4 -12.2984 -20.4327 1.95994
78358 5 -14.1288 -22.883 1.87992
78583 5 -12.4879 -21.3087 3.18393
79219 5 -9.03234 -21.4606 2.81698
79936 6 -14.4777 -22.2351 2.49494
80161 6 -12.2554 -20.778 3.95564
80797 6 -9.62976 -22.2199 2.718
76681 3 -10.9618 -21.0045 1.44682
76677 3 -13.6146 -20.9036 1.27222
81250 6 -8.88842 -20.4873 4.15944
76685 4 -8.46811 -20.6228 0.693565
76564 4 -13.6161 -22.1968 0.63295
76568 4 -11.0212 -22.0434 0.342908
76567 4 -12.3064 -22.8486 0.30084
76571 4 -9.72146 -22.8614 0.0253981
76452 3 -11.1529 -26.544 0.0393518
76459 4 -7.2825 -27.3443 0.143647
80390 6 -1.80205 -25.6134 3.42143
76581 4 -0.928754 -25.1182 1.72856
76468 3 -0.962137 -26.6267 1.82438
76458 4 -7.38388 -28.7788 0.684265
78812 5 -1.26258 -24.9007 3.19232
76463 4 -4.77444 -27.307 1.18269
76467 4 -2.29611 -27.2937 1.96384
78277 5 -5.19856 -29.0501 2.83814
78726 5 -2.69193 -26.775 3.26449
79022 5 -5.34756 -26.7064 2.4289
79339 5 -7.4365 -28.6715 2.15895
79406 5 -2.70532 -28.9821 3.42888
80058 6 -6.91099 -24.4573 2.49452
80304 6 -2.77531 -27.5657 3.83998
80600 6 -5.38791 -27.416 3.09804
76462 4 -4.88981 -28.8582 1.38709
76466 4 -2.3116 -28.8839 2.00756
76464 4 -3.39463 -26.664 1.07445
76582 3 -2.07364 -24.419 1.11423
76577 3 -3.33523 -25.1482 0.938988
76574 4 -7.07775 -24.2664 0.592092
78480 5 -6.66644 -23.7554 1.90733
76573 4 -5.82225 -25.0776 0.217161
76578 3 -4.54952 -24.3983 0.58244
76460 4 -5.86542 -26.6655 0.266515
76583 4 -2.01149 -22.9377 0.858104
80370 6 -3.67027 -23.5044 2.927
76580 4 -3.34932 -22.2306 1.20843
78792 5 -3.45393 -22.5105 2.71212
76698 3 -2.00285 -19.9736 1.42344
76693 3 -3.32273 -20.7479 1.22417
76694 4 -4.5359 -19.9623 1.09978
76690 4 -7.16461 -19.8953 0.848984
76689 3 -5.85399 -20.6887 0.882043
76579 3 -4.57988 -22.8594 0.733303
76697 4 -0.743145 -20.6887 1.0335
81042 6 -1.0253 -23.5048 3.25436
76584 3 -0.711884 -22.1748 1.1882
76576 4 -5.72462 -22.019 0.165655
81292 6 -36.7733 -17.7623 -3.15088
78292 5 -31.9076 -18.7661 -0.76094
79186 5 -33.8228 -17.9767 -1.75165
79714 5 -35.8975 -18.0558 -2.73875
79870 6 -32.4941 -18.2755 -1.30583
80764 6 -34.0461 -18.2518 -2.63864
76757 4 -36.1733 -16.6221 -0.731314
76644 4 -36.105 -18.0686 -1.26859
76647 4 -34.7886 -18.8112 -0.921642
79883 6 -30.3795 -19.1606 -0.536844
80051 6 -35.3497 -16.6369 -2.51175
76873 4 -36.4017 -12.4428 -0.186613
78473 5 -35.6843 -15.8461 -1.92464
78787 5 -33.2133 -13.2948 -0.96443
79170 5 -31.5865 -10.8817 -1.29939
79346 5 -34.9404 -12.0449 -1.87974
80365 6 -32.303 -13.5568 -0.74634
80924 6 -34.1131 -12.4786 -1.94302
76878 4 -34.9332 -11.7789 -0.417357
79902 6 -30.4559 -14.6919 -0.0283065
76760 3 -36.4669 -13.8953 -0.00154951
80993 6 -24.303 -14.9212 -0.234547
80189 6 -26.2903 -18.9042 -0.231792
79075 5 -25.3563 -16.1525 -0.153051
80653 6 -24.6935 -16.7991 -0.444357
79932 6 -26.7278 -16.6839 -0.441559
80414 6 -28.092 -13.763 -0.0655156
80702 6 -28.3497 -18.8392 -0.0605452
80986 6 -19.7094 -11.393 -0.00609908
80836 6 -21.3705 -18.8664 -0.470541
80538 6 -17.4523 -11.9396 -0.257176
80542 6 -19.2805 -13.3931 -0.261898
81118 6 -19.5549 -17.8505 -0.0231806
81073 6 -16.6661 -14.8747 -0.144517
78964 5 -18.8553 -12.6036 -0.0863706
78641 5 -9.27494 -19.6384 -0.07961
79849 6 -7.92985 -19.5615 -0.934832
79453 5 -0.671451 -12.2141 -0.758306
80264 6 -3.9186 -18.5877 -0.1957
81240 6 -6.73654 -17.894 -0.298603
80114 6 -1.65381 -19.6859 -0.599867
78271 5 -7.01868 -19.4688 -0.648579
79854 6 -2.05724 -17.4248 -0.234362
78686 5 -4.45254 -19.4035 -0.291838
81132 6 -6.08411 -14.2424 -0.404969
78599 5 -0.754247 -14.4338 -0.136414
79922 6 -3.41682 -11.7214 -1.18205
78344 5 -3.78417 -12.4962 -0.748912
79958 6 -3.6188 -14.3304 -0.784864
79554 5 -5.24165 -14.6686 -0.316397
80177 6 -1.61588 -14.8805 -0.302953
78380 5 -3.02171 -14.7128 -0.101909
80586 6 -4.82309 -16.1027 -0.292787
78276 5 -2.39599 -18.2981 -0.0211694
81031 6 -0.821443 -13.1548 -0.844792
78222 5 -36.6397 -3.61473 -3.79897
79800 6 -35.6594 -3.61179 -3.82099
81027 6 -36.6237 -7.73702 -3.42804
79449 5 -36.6635 -6.93955 -2.95346
76994 4 -35.1446 -7.30219 -0.0419597
79641 5 -35.4945 -9.72365 -2.46024
80748 6 -32.0118 -10.4915 -1.99236
76876 4 -36.0979 -9.5325 -1.05406
76880 4 -33.5371 -9.46623 -0.558025
79670 5 -33.2927 -9.37588 -1.96164
76879 4 -34.9026 -10.2231 -0.391343
81219 6 -36.0583 -10.3481 -2.9641
78692 5 -30.1708 -9.159 -0.86386
80270 6 -30.3684 -10.0061 -1.26994
81248 6 -34.1452 -9.60032 -2.41619
76883 4 -32.254 -10.2673 -0.0941074
77114 4 -32.4189 -2.98282 -0.0915933
78546 5 -33.2979 -1.60235 -3.26329
77109 3 -33.7026 -3.84946 -0.299661
78470 5 -30.7252 -6.99387 -0.352077
80124 6 -32.9548 -2.49154 -3.33298
80977 6 -31.5082 -3.66246 -2.00156
76992 3 -36.3618 -5.19876 -0.667364
77110 3 -34.7385 -3.30547 -1.17575
77115 4 -32.0963 -1.94955 -1.13244
77111 3 -34.672 -1.93184 -1.5593
76989 3 -36.1509 -8.04918 -0.938146
79088 5 -31.2758 -4.62639 -0.873235
77105 4 -35.8805 -4.1838 -1.6561
80216 6 -32.6753 -7.80132 -1.77904
78638 5 -33.2869 -7.12031 -1.42373
78355 5 -35.1464 -5.11126 -2.51695
80666 6 -30.5728 -5.31502 -0.820978
79933 6 -35.8236 -5.72331 -2.99244
79399 5 -31.3724 -2.71793 -2.22953
80048 6 -30.3083 -7.64355 -0.957205
76993 4 -33.6046 -7.88142 -0.162864
81105 6 -26.8611 -7.70464 -0.00189297
80593 6 -23.3908 -9.43739 -0.655618
80899 6 -28.5964 -9.88781 -0.187755
79015 5 -24.2603 -9.15782 -0.224922
80551 6 -23.3993 -2.17051 -3.13252
79651 5 -26.3256 -1.64033 -2.55863
77123 3 -27.3142 -1.78047 -0.488026
81247 6 -28.5635 -4.71788 -1.51348
77122 4 -27.5441 -3.25283 -0.510749
77127 4 -24.7523 -1.96359 -0.784472
77121 4 -26.2476 -4.17553 -0.591771
77125 4 -23.6148 -4.45814 -0.95407
81106 6 -24.7987 -4.28935 -2.79492
80985 6 -27.4346 -2.69535 -2.47264
80358 6 -26.0281 -5.78709 -1.8111
80066 6 -24.594 -7.11483 -1.41697
80004 6 -23.179 -5.7618 -2.29618
79669 5 -28.9913 -5.02843 -0.64653
79528 5 -24.851 -3.32539 -2.49589
79407 5 -28.0608 -3.26246 -1.96726
78780 5 -26.5915 -5.03166 -1.81846
78488 5 -25.4469 -6.96561 -0.881625
78426 5 -23.9975 -5.25833 -2.11059
77126 4 -24.8919 -3.50082 -1.02847
78539 5 -22.8168 -7.01581 -1.33767
81229 6 -25.5111 -1.95548 -3.00378
78973 5 -22.4849 -2.39995 -3.07276
77016 4 -20.9244 -5.87525 -0.127317
79130 5 -21.9283 -8.88776 -0.308391
79152 5 -18.5644 -6.36473 -0.171057
80834 6 -21.7341 -3.81559 -3.20907
80708 6 -21.0487 -8.53855 -0.538169
77132 4 -20.7245 -1.52879 -1.6421
80117 6 -22.1441 -7.63491 -1.57704
78517 5 -19.8121 -4.56612 -1.59294
78596 5 -20.5737 -6.63072 -1.37383
80256 6 -18.5466 -2.25025 -2.17512
78156 5 -20.1791 -2.46148 -2.84438
77131 4 -22.137 -2.26017 -1.64602
77135 4 -19.6292 -2.02591 -0.529061
77130 4 -22.1129 -3.8189 -1.26557
77129 4 -20.8485 -4.39491 -0.521453
80730 6 -18.919 -6.09022 -1.0171
80174 6 -20.5064 -5.84818 -2.00572
80095 6 -19.8113 -3.78449 -2.14006
79913 6 -17.7127 -3.54498 -0.470523
79256 5 -21.8924 -4.51521 -2.53548
78678 5 -18.4977 -2.69073 -1.3148
79734 6 -20.4932 -1.93116 -3.61083
79959 6 -18.8148 -8.95908 -0.0168772
80742 6 -7.92166 -10.3577 -0.276378
80268 6 -0.640296 -6.43199 -1.13738
78262 5 -1.9004 -7.07751 -0.540494
79250 5 -3.99399 -8.6414 -0.781809
78362 5 -6.52332 -7.17482 -0.328163
79809 6 -7.04241 -8.35059 -0.795148
79940 6 -6.01036 -6.36917 -0.340477
80465 6 -4.11498 -7.2059 -0.500233
79507 5 -0.796199 -9.01175 -1.317
79762 6 -5.79508 -9.91161 -1.15299
79501 5 -2.60361 -10.4434 -1.24645
78231 5 -6.94804 -9.3151 -0.588602
78184 5 -5.18401 -10.636 -0.80353
81079 6 -1.73516 -10.1093 -1.70918
80828 6 -3.66214 -9.40992 -1.28614
79840 6 -1.80653 -7.76878 -1.22018
80458 6 -30.0624 -17.1535 0.0348603
78305 5 -29.8438 -18.659 0.097116
76652 4 -31.5925 -18.5665 1.62776
78912 5 -31.7024 -16.9568 3.52033
79324 5 -34.8056 -19.0673 1.32512
79715 5 -32.337 -19.0653 2.85223
80902 6 -35.2624 -18.3776 1.89448
76765 4 -31.6501 -17.0322 2.03435
80490 6 -31.9229 -17.8979 3.75128
76655 4 -30.1662 -19.173 1.48239
78985 5 -33.9114 -16.5902 2.8288
78837 5 -35.9277 -16.4573 1.59063
76761 3 -33.9603 -16.8332 0.548218
76651 4 -32.5776 -19.0409 0.554043
76648 4 -33.9413 -18.3026 0.364549
80415 6 -35.2002 -16.3489 2.24674
76770 4 -30.2547 -16.2047 1.8094
80563 6 -33.2845 -17.0392 3.49021
78880 5 -30.1688 -16.2527 0.334184
76766 4 -33.0078 -16.2482 1.60327
80555 6 -29.706 -17.2696 4.15309
78636 5 -36.6379 -11.9318 1.22136
76762 4 -35.2111 -16.1029 0.277532
76764 4 -34.188 -13.8326 1.05291
76768 4 -31.5959 -13.9759 1.44352
76881 4 -31.6139 -12.4006 1.50073
78379 5 -33.0159 -14.4314 3.16448
78864 5 -32.5166 -12.1144 2.67675
79708 5 -34.8224 -13.282 2.2499
79957 6 -32.9957 -15.3565 3.53973
80214 6 -36.0833 -12.4813 1.86472
80442 6 -32.521 -12.9053 3.22614
81286 6 -34.3825 -13.6173 2.99898
76767 4 -32.9549 -14.6841 1.73344
79233 5 -30.4717 -11.6255 3.36143
78897 5 -30.4137 -14.3959 3.44077
76771 4 -30.3055 -14.7168 1.99275
76886 4 -30.2739 -11.7055 1.83746
80811 6 -31.3985 -11.4038 3.42268
80475 6 -30.107 -15.1899 3.88224
76882 3 -32.5567 -11.6959 0.544456
76763 3 -35.2694 -14.585 0.413557
76877 4 -33.7587 -12.5411 0.104808
78324 5 -31.4074 -14.285 0.051425
78354 5 -27.3278 -17.1038 0.22851
78899 5 -23.5139 -17.3885 0.234486
78611 5 -25.5676 -18.9019 0.392177
80155 6 -29.0668 -19.7237 3.86747
76777 4 -23.7494 -17.0409 1.61478
76773 4 -26.465 -17.0158 1.51527
76660 4 -26.2804 -18.5982 1.67617
76664 4 -23.7065 -18.4963 2.29401
76663 4 -25.0401 -19.2545 2.44209
76656 4 -28.9849 -18.5409 2.213
78577 5 -29.397 -18.8632 3.58037
78885 5 -25.5488 -19.1208 3.81555
78977 5 -29.1837 -16.5749 3.83514
79644 5 -23.3515 -18.1569 3.70996