LAMMPS data file via write_data, version 2 Aug 2023, timestep = 1015000, units = real

18720 atoms
4 atom types

-4.639794006420104 223.53637000642198 xlo xhi
-3.402161956996423 224.92216795698613 ylo yhi
-77.1 147.1 zlo zhi

Masses

1 12.0107
2 12.0107
3 15.999
4 1.00784

Atoms # full

2 2 1 0 -4.609371453000722 -2.6832001760876065 0 0 0 0
3 3 1 0 -4.62383902762817 -1.193364440432919 0 0 0 0
6 6 1 0 -2.081698048423349 -2.6568410732978145 0 0 0 0
7 7 1 0 -2.0772394928460125 -1.204543282497823 0 0 0 0
10 10 1 0 0.4028419615270913 -2.7133078240954926 0 0 0 0
11 11 1 0 0.452976578291425 -1.2040335316362567 0 0 0 0
14 14 1 0 2.987006589347999 -2.7056597493774928 0 0 0 0
15 15 1 0 2.9777300905108204 -1.225231109697459 0 0 0 0
18 18 1 0 5.5134610035223695 -2.660985685825448 0 0 0 0
19 19 1 0 5.521178253621754 -1.207915539890568 0 0 0 0
22 22 1 0 8.014315700016736 -2.7515799034552235 0 0 0 0
23 23 1 0 7.9962236931719435 -1.2383920589256054 0 0 0 0
26 26 1 0 10.475380130013304 -2.6920220637699375 0 0 0 0
27 27 1 0 10.47413683397314 -1.2449578131601684 0 0 0 0
30 30 1 0 13.03142048881081 -2.7237618593544233 0 0 0 0
31 31 1 0 13.034037367082515 -1.2686818329370682 0 0 0 0
34 34 1 0 15.570476181219497 -2.740115548997309 0 0 0 0
35 35 1 0 15.580980613040836 -1.3109083615449815 0 0 0 0
38 38 1 0 18.126687262120655 -2.6987470034005976 0 0 0 0
39 39 1 0 18.13049666565128 -1.21975075736569 0 0 0 0
42 42 1 0 20.650232664523028 -2.6726067716852784 0 0 0 0
43 43 1 0 20.625428724209524 -1.248994099494329 0 0 0 0
46 46 1 0 23.237006978677023 -2.676578792829076 0 0 0 0
47 47 1 0 23.257063061661636 -1.2108510009197992 0 0 0 0
4 4 1 0 -3.3387023758901067 -0.47188911535458367 0 0 0 0
361 361 1 0 -3.310895305949054 1.0017373555606701 0 0 0 0
8 8 1 0 -0.8084590440144783 -0.44634783747265416 0 0 0 0
365 365 1 0 -0.8076713730568876 0.9726289613129522 0 0 0 0
12 12 1 0 1.7313897793441733 -0.5118658476137186 0 0 0 0
369 369 1 0 1.7236658863058762 0.9558962660865724 0 0 0 0
16 16 1 0 4.2355561006988065 -0.5045432998642037 0 0 0 0
373 373 1 0 4.224243148325172 0.9405434934386818 0 0 0 0
20 20 1 0 6.734943702169433 -0.5336078619345277 0 0 0 0
377 377 1 0 6.73497460156864 0.9518134849889508 0 0 0 0
24 24 1 0 9.243673540901016 -0.5353197588691634 0 0 0 0
381 381 1 0 9.270106746716657 0.9404789919602381 0 0 0 0
28 28 1 0 11.742369465253411 -0.5264123843052011 0 0 0 0
385 385 1 0 11.76158772662184 0.900458072042654 0 0 0 0
32 32 1 0 14.332340429363857 -0.568690239219034 0 0 0 0
389 389 1 0 14.333745111854512 0.9141771937475243 0 0 0 0
36 36 1 0 16.867585234756184 -0.5150187127250301 0 0 0 0
393 393 1 0 16.841514982340026 0.9594479044148052 0 0 0 0
397 397 1 0 19.385609185128285 0.9914532721716052 0 0 0 0
40 40 1 0 19.37622708708626 -0.4896675286163239 0 0 0 0
44 44 1 0 21.914107434433333 -0.4321750119700898 0 0 0 0
401 401 1 0 21.94466053098833 1.006695003757665 0 0 0 0
362 362 1 0 -4.582055569543869 1.6845739809206322 0 0 0 0
363 363 1 0 -4.583665654335104 3.1119959294940873 0 0 0 0
366 366 1 0 -2.0446548530790274 1.7248996507292613 0 0 0 0
367 367 1 0 -2.0834677322176463 3.158516212794864 0 0 0 0
370 370 1 0 0.44681965484600195 1.699258172963665 0 0 0 0
371 371 1 0 0.4310806274500143 3.1592270151627684 0 0 0 0
374 374 1 0 2.9505177990792903 1.7042994017318973 0 0 0 0
375 375 1 0 2.930907012455129 3.184497331520988 0 0 0 0
378 378 1 0 5.501247373659009 1.6704478032092362 0 0 0 0
379 379 1 0 5.505866941530657 3.1407400892553 0 0 0 0
382 382 1 0 8.00368687974081 1.65881223073416 0 0 0 0
383 383 1 0 8.021433905027582 3.118984920205304 0 0 0 0
386 386 1 0 10.534521124086085 1.6415097563595378 0 0 0 0
387 387 1 0 10.576126264939585 3.104702116554507 0 0 0 0
390 390 1 0 13.056645488265662 1.6638830551227786 0 0 0 0
391 391 1 0 13.058497807095772 3.115341246713702 0 0 0 0
394 394 1 0 15.577904990821878 1.6420952571236054 0 0 0 0
395 395 1 0 15.533109116378235 3.1326792290502965 0 0 0 0
398 398 1 0 18.14310031800068 1.711025016283637 0 0 0 0
399 399 1 0 18.149009132041577 3.153600231272855 0 0 0 0
402 402 1 0 20.669849102373 1.7184034774496881 0 0 0 0
403 403 1 0 20.67706861151728 3.1771494097384867 0 0 0 0
406 406 1 0 23.23330366003703 1.7644467930471306 0 0 0 0
407 407 1 0 23.222039893330415 3.2015163537511597 0 0 0 0
364 364 1 0 -3.325631894148362 3.8932122026893516 0 0 0 0
721 721 1 0 -3.3441975261152015 5.307059095846606 0 0 0 0
368 368 1 0 -0.8530922442588058 3.871170929072335 0 0 0 0
725 725 1 0 -0.8447124525284049 5.295848106981595 0 0 0 0
372 372 1 0 1.6740377215163038 3.9143499831647786 0 0 0 0
729 729 1 0 1.6895021880271992 5.344590935507082 0 0 0 0
376 376 1 0 4.215081806495991 3.8825278365637397 0 0 0 0
733 733 1 0 4.20253216438468 5.320705425477934 0 0 0 0
380 380 1 0 6.775956016891978 3.885522300430047 0 0 0 0
737 737 1 0 6.765502575082676 5.3279717919090075 0 0 0 0
384 384 1 0 9.29320820473335 3.8708456688755106 0 0 0 0
741 741 1 0 9.29016208518207 5.338102797975429 0 0 0 0
388 388 1 0 11.812584039794988 3.8652493010268962 0 0 0 0
745 745 1 0 11.823809439957142 5.291251203991838 0 0 0 0
392 392 1 0 14.296331292968002 3.8286446190771057 0 0 0 0
749 749 1 0 14.317857274178923 5.304873647969327 0 0 0 0
396 396 1 0 16.82204950756006 3.8975265359914433 0 0 0 0
753 753 1 0 16.862414680547953 5.30369822778591 0 0 0 0
400 400 1 0 19.450504264588993 3.8825164290689997 0 0 0 0
757 757 1 0 19.427039879848564 5.343855022058037 0 0 0 0
404 404 1 0 21.98009496769019 3.948724490407284 0 0 0 0
761 761 1 0 21.992100532891506 5.400936159918743 0 0 0 0
722 722 1 0 -4.606325237921189 6.047466038930436 0 0 0 0
723 723 1 0 -4.61206480636735 7.490379698323853 0 0 0 0
726 726 1 0 -2.0930371012415647 6.038967188115368 0 0 0 0
727 727 1 0 -2.088904200142639 7.508605250524216 0 0 0 0
730 730 1 0 0.4459742980484869 6.0470789116272226 0 0 0 0
731 731 1 0 0.4507986664706918 7.523026279327198 0 0 0 0
734 734 1 0 2.9546827715109867 6.08977439416914 0 0 0 0
735 735 1 0 2.9291970370636697 7.535594036243372 0 0 0 0
738 738 1 0 5.481236903085852 6.0340198434079575 0 0 0 0
739 739 1 0 5.4669089292378 7.55700450261455 0 0 0 0
742 742 1 0 8.002065135443816 6.067653941183911 0 0 0 0
743 743 1 0 7.997077943426358 7.545505072536953 0 0 0 0
746 746 1 0 10.528715563147074 6.0476359869762835 0 0 0 0
747 747 1 0 10.551675046909143 7.561254435016286 0 0 0 0
750 750 1 0 13.056846007156121 6.015634743431075 0 0 0 0
751 751 1 0 13.099790644550868 7.499068332778071 0 0 0 0
754 754 1 0 15.586872377751725 6.052921226987014 0 0 0 0
755 755 1 0 15.595355859441021 7.48554112735072 0 0 0 0
758 758 1 0 18.157663487796096 6.051967218238419 0 0 0 0
759 759 1 0 18.16882584823241 7.492528219122805 0 0 0 0
762 762 1 0 20.70469988259457 6.121493203115353 0 0 0 0
763 763 1 0 20.661720927793464 7.53240655663229 0 0 0 0
766 766 1 0 23.269247606078 6.123186427650181 0 0 0 0
767 767 1 0 23.250905089566693 7.543939723596399 0 0 0 0
724 724 1 0 -3.367424618730003 8.220972829684891 0 0 0 0
1081 1081 1 0 -3.353993961144189 9.757192405701549 0 0 0 0
728 728 1 0 -0.8119268708011549 8.259886133292495 0 0 0 0
1085 1085 1 0 -0.8162105220626903 9.756213033003222 0 0 0 0
732 732 1 0 1.7042683695531142 8.23909660244173 0 0 0 0
1089 1089 1 0 1.7240365149685957 9.714588551532216 0 0 0 0
736 736 1 0 4.2032178859304175 8.309177150680684 0 0 0 0
1093 1093 1 0 4.2410937039792564 9.725913667558265 0 0 0 0
740 740 1 0 6.755106023535079 8.258629749807888 0 0 0 0
1097 1097 1 0 6.774617356712117 9.766337372668058 0 0 0 0
744 744 1 0 9.281318340599487 8.268665542480276 0 0 0 0
1101 1101 1 0 9.257452475038846 9.744981185580714 0 0 0 0
748 748 1 0 11.803166207873748 8.30073146107891 0 0 0 0
1105 1105 1 0 11.765782111160306 9.72271459325721 0 0 0 0
752 752 1 0 14.377016803336943 8.227311509632196 0 0 0 0
1109 1109 1 0 14.37011179498084 9.709398242862147 0 0 0 0
756 756 1 0 16.86693512217584 8.203158958914637 0 0 0 0
1113 1113 1 0 16.86036108132085 9.65713007896118 0 0 0 0
760 760 1 0 19.391147551266855 8.235260980392368 0 0 0 0
1117 1117 1 0 19.397476301874995 9.708456460592027 0 0 0 0
764 764 1 0 21.94925659536308 8.263457177172178 0 0 0 0
1121 1121 1 0 21.95290607612659 9.684985329132113 0 0 0 0
1082 1082 1 0 -4.566027296917528 10.468690646360388 0 0 0 0
1083 1083 1 0 -4.604760381620598 11.926910715296955 0 0 0 0
1086 1086 1 0 -2.0461601918621657 10.454694636317882 0 0 0 0
1087 1087 1 0 -2.0292822778836035 11.910915057245743 0 0 0 0
1090 1090 1 0 0.3943533682818634 10.45078776977813 0 0 0 0
1091 1091 1 0 0.4349477083069111 11.96255013429435 0 0 0 0
1094 1094 1 0 3.003432819805793 10.443322529121337 0 0 0 0
1095 1095 1 0 3.017527055582751 11.989966959938046 0 0 0 0
1098 1098 1 0 5.4963011949005 10.49091184725107 0 0 0 0
1099 1099 1 0 5.531991800062224 11.951371486846021 0 0 0 0
1102 1102 1 0 8.03120321169643 10.492168345878074 0 0 0 0
1103 1103 1 0 8.018087595607314 11.945871997124463 0 0 0 0
1106 1106 1 0 10.549374768092362 10.454384468211023 0 0 0 0
1107 1107 1 0 10.592286554673585 11.909176077958675 0 0 0 0
1110 1110 1 0 13.07752160292776 10.447831012665546 0 0 0 0
1111 1111 1 0 13.118938458621056 11.939867368951283 0 0 0 0
1114 1114 1 0 15.601683301568652 10.413591334905737 0 0 0 0
1115 1115 1 0 15.614089265482018 11.945376804758757 0 0 0 0
1118 1118 1 0 18.15060446093139 10.454369199391593 0 0 0 0
1119 1119 1 0 18.162856900667606 11.93937082518107 0 0 0 0
1122 1122 1 0 20.657991520904442 10.423642123626752 0 0 0 0
1123 1123 1 0 20.678591821280012 11.8888887776925 0 0 0 0
1126 1126 1 0 23.230963039950698 10.433716030216406 0 0 0 0
1127 1127 1 0 23.175129481098857 11.900861269461776 0 0 0 0
1084 1084 1 0 -3.31897962275163 12.666726421438522 0 0 0 0
1441 1441 1 0 -3.3371458285415345 14.105276074543774 0 0 0 0
1088 1088 1 0 -0.7983436941139472 12.665750412196662 0 0 0 0
1445 1445 1 0 -0.8033279999297176 14.094644909224638 0 0 0 0
1092 1092 1 0 1.74100725725756 12.751852816894623 0 0 0 0
1449 1449 1 0 1.7154237941245052 14.161880828455342 0 0 0 0
1096 1096 1 0 4.270595679366222 12.67599096892977 0 0 0 0
1453 1453 1 0 4.248450109828962 14.089018603399182 0 0 0 0
1100 1100 1 0 6.760933086178952 12.666812825379093 0 0 0 0
1457 1457 1 0 6.777086383014199 14.126126160001952 0 0 0 0
1104 1104 1 0 9.296133403663164 12.661464097940925 0 0 0 0
1461 1461 1 0 9.318701231201223 14.106974688159006 0 0 0 0
1108 1108 1 0 11.872636130477893 12.69304418928985 0 0 0 0
1465 1465 1 0 11.889014452808464 14.151426012468182 0 0 0 0
1112 1112 1 0 14.363139327472169 12.667511181550687 0 0 0 0
1469 1469 1 0 14.389918055379319 14.117862390438919 0 0 0 0
1116 1116 1 0 16.922829293041453 12.673221456695398 0 0 0 0
1473 1473 1 0 16.921682488258657 14.137257324401872 0 0 0 0
1120 1120 1 0 19.44232152094914 12.644157646317847 0 0 0 0
1477 1477 1 0 19.426271168335163 14.121371928664551 0 0 0 0
1124 1124 1 0 21.93331399503729 12.600206474499192 0 0 0 0
1481 1481 1 0 21.992545222947705 14.088573273725341 0 0 0 0
1442 1442 1 0 -4.6087022056464395 14.814320521781543 0 0 0 0
2186 2186 1 0 10.66367837505942 23.659875864115822 0 0 0 0
1446 1446 1 0 -2.0786451974220594 14.848580104341892 0 0 0 0
1447 1447 1 0 -2.049643387530186 16.273002736206205 0 0 0 0
1450 1450 1 0 0.47655906239299206 14.84730245833498 0 0 0 0
1451 1451 1 0 0.45677912941838095 16.331213962663355 0 0 0 0
1454 1454 1 0 2.978241829284899 14.84188288822872 0 0 0 0
1455 1455 1 0 2.972643207234266 16.326172256413514 0 0 0 0
1458 1458 1 0 5.504279687282164 14.831321866298904 0 0 0 0
1459 1459 1 0 5.5182069322275 16.352582436334153 0 0 0 0
1462 1462 1 0 8.049441236569455 14.793609264670451 0 0 0 0
1463 1463 1 0 8.06595368462733 16.330284597077892 0 0 0 0
1466 1466 1 0 10.591813325742278 14.888765412199483 0 0 0 0
1467 1467 1 0 10.570400783135156 16.364197673997584 0 0 0 0
1470 1470 1 0 13.114528828563664 14.85809474766349 0 0 0 0
1471 1471 1 0 13.07920481469866 16.328493966330736 0 0 0 0
1474 1474 1 0 15.65297551444932 14.83727125269575 0 0 0 0
1475 1475 1 0 15.65399851831399 16.364196517769948 0 0 0 0
1478 1478 1 0 18.15428072783364 14.883975078195327 0 0 0 0
1479 1479 1 0 18.197467132845084 16.322042474233 0 0 0 0
1482 1482 1 0 20.71041423493879 14.820585419600938 0 0 0 0
1483 1483 1 0 20.74997194755424 16.3257989342317 0 0 0 0
1486 1486 1 0 23.229709861850086 14.839600064480422 0 0 0 0
1487 1487 1 0 23.21059476961954 16.30301496315147 0 0 0 0
1444 1444 1 0 -3.3517219528135693 17.054474710112864 0 0 0 0
1801 1801 1 0 -3.336259441462243 18.518052781177225 0 0 0 0
1448 1448 1 0 -0.7948599651976793 16.993512263790983 0 0 0 0
1805 1805 1 0 -0.7865049128604844 18.522125337408088 0 0 0 0
1452 1452 1 0 1.7326805616952434 17.04337111269051 0 0 0 0
1809 1809 1 0 1.7308174033552408 18.511712733438003 0 0 0 0
1456 1456 1 0 4.234589327181913 17.090899165936005 0 0 0 0
1813 1813 1 0 4.244786309233554 18.562856178423374 0 0 0 0
1460 1460 1 0 6.788172506170357 17.072906646022542 0 0 0 0
1817 1817 1 0 6.771481791124398 18.551223040621522 0 0 0 0
1464 1464 1 0 9.312057736068262 17.055095952716744 0 0 0 0
1821 1821 1 0 9.295988561093168 18.52411410139111 0 0 0 0
1468 1468 1 0 11.832578651580931 17.08144217704561 0 0 0 0
1825 1825 1 0 11.843187084923134 18.50887500556005 0 0 0 0
1472 1472 1 0 14.354348747812601 17.09484337117247 0 0 0 0
1829 1829 1 0 14.40607420115689 18.555110238472135 0 0 0 0
1476 1476 1 0 16.909559618129105 17.070851511475027 0 0 0 0
1833 1833 1 0 16.869452536238853 18.54318327143728 0 0 0 0
1480 1480 1 0 19.454387897121293 17.0420994032792 0 0 0 0
1837 1837 1 0 19.402906425452997 18.525144827695573 0 0 0 0
1484 1484 1 0 21.97924305100565 17.054205124369144 0 0 0 0
1841 1841 1 0 21.998078070534316 18.465397834080086 0 0 0 0
1802 1802 1 0 -4.618449786453726 19.25811324277121 0 0 0 0
2182 2182 1 0 8.091743259994741 23.653850437287335 0 0 0 0
1806 1806 1 0 -2.05976770661521 19.251446746952546 0 0 0 0
1807 1807 1 0 -2.058759478834461 20.720597016945234 0 0 0 0
1810 1810 1 0 0.5168883669684332 19.221672946680503 0 0 0 0
1811 1811 1 0 0.5062134975707107 20.694769124895767 0 0 0 0
1814 1814 1 0 3.02467702012674 19.244081811632768 0 0 0 0
1815 1815 1 0 2.977700946393248 20.721797743081833 0 0 0 0
1818 1818 1 0 5.549182787544032 19.285826462823124 0 0 0 0
1819 1819 1 0 5.553155525327641 20.724356761110652 0 0 0 0
1822 1822 1 0 8.062433334166874 19.299664162978367 0 0 0 0
1823 1823 1 0 8.053148083860087 20.736432380710216 0 0 0 0
1826 1826 1 0 10.584771796052035 19.267230069827477 0 0 0 0
1827 1827 1 0 10.598504526100733 20.73372007477259 0 0 0 0
1830 1830 1 0 13.122386261057084 19.28072152256319 0 0 0 0
1831 1831 1 0 13.11088057299646 20.762202597555856 0 0 0 0
1834 1834 1 0 15.628314113191372 19.281166715801643 0 0 0 0
1835 1835 1 0 15.622833661747471 20.7130969549165 0 0 0 0
1838 1838 1 0 18.15452223408524 19.25959191455041 0 0 0 0
1839 1839 1 0 18.157432005876583 20.70170651181024 0 0 0 0
1842 1842 1 0 20.689550971088607 19.238843888635444 0 0 0 0
1843 1843 1 0 20.69035830529232 20.717093092892206 0 0 0 0
1846 1846 1 0 23.282825472438052 19.221663998101352 0 0 0 0
1847 1847 1 0 23.24247111286178 20.730645851530525 0 0 0 0
2161 2161 1 0 -3.3870519255809777 22.85888611594471 0 0 0 0
1804 1804 1 0 -3.3702236367347442 21.433645916099685 0 0 0 0
2165 2165 1 0 -0.776935757512704 22.8811136680439 0 0 0 0
1808 1808 1 0 -0.7745507906418534 21.403392433447618 0 0 0 0
2169 2169 1 0 1.6823995591564502 22.91198643323516 0 0 0 0
1812 1812 1 0 1.730778048519281 21.413538641464502 0 0 0 0
2173 2173 1 0 4.256821903211625 22.948833581607037 0 0 0 0
1816 1816 1 0 4.278847214458436 21.4823533974239 0 0 0 0
2177 2177 1 0 6.7935340004546205 22.932855997838356 0 0 0 0
1820 1820 1 0 6.805297243519654 21.470026841802277 0 0 0 0
2181 2181 1 0 9.366284849674473 22.947960980786988 0 0 0 0
1824 1824 1 0 9.3432773962242 21.459723158936047 0 0 0 0
2185 2185 1 0 11.906308698312998 22.977010062971523 0 0 0 0
1828 1828 1 0 11.882551317342074 21.473072700072105 0 0 0 0
2189 2189 1 0 14.4115271431432 22.9216336597693 0 0 0 0
1832 1832 1 0 14.342758958260486 21.432316233698625 0 0 0 0
2193 2193 1 0 16.92187050949414 22.925991622278566 0 0 0 0
1836 1836 1 0 16.902613813064512 21.431338397681174 0 0 0 0
2197 2197 1 0 19.44948441837443 22.90770612317847 0 0 0 0
1840 1840 1 0 19.42583859552935 21.456464772935316 0 0 0 0
2201 2201 1 0 21.991309268221528 22.91328207460656 0 0 0 0
1844 1844 1 0 21.96873426953866 21.465358094586453 0 0 0 0
2162 2162 1 0 -4.632353703498552 23.60468495774599 0 0 0 0
2206 2206 1 0 23.259831863473845 23.659889391751395 0 0 0 0
2166 2166 1 0 -2.0699623984725712 23.598517734332468 0 0 0 0
2202 2202 1 0 20.743313567366577 23.63516517726227 0 0 0 0
2170 2170 1 0 0.46712886038137125 23.614076585361445 0 0 0 0
2198 2198 1 0 18.17014333436221 23.635553097208557 0 0 0 0
2174 2174 1 0 2.9756254886403815 23.643519673923265 0 0 0 0
2194 2194 1 0 15.690674869655613 23.65571811823975 0 0 0 0
2178 2178 1 0 5.524882220168076 23.664146827962494 0 0 0 0
2190 2190 1 0 13.148057079950977 23.66700892850251 0 0 0 0
2187 2187 1 0 10.663844432023744 25.135307711420165 0 0 0 0
2199 2199 1 0 18.177885923774006 25.109906674720662 0 0 0 0
2171 2171 1 0 0.4420842205512532 25.07943148305224 0 0 0 0
2203 2203 1 0 20.72059193549409 25.100430307172097 0 0 0 0
2167 2167 1 0 -2.0668066728186427 25.102134160930955 0 0 0 0
2207 2207 1 0 23.238672425458102 25.105266691070863 0 0 0 0
2163 2163 1 0 -4.630521703563656 25.096446162765556 0 0 0 0
2191 2191 1 0 13.149688548414613 25.12373969402937 0 0 0 0
2179 2179 1 0 5.51972457382754 25.133550817340065 0 0 0 0
2195 2195 1 0 15.692175347155526 25.123744195745896 0 0 0 0
2175 2175 1 0 2.984591734318304 25.134147127760258 0 0 0 0
2164 2164 1 0 -3.3764530559323154 25.848691399381746 0 0 0 0
2521 2521 1 0 -3.3616588375364094 27.323080843485258 0 0 0 0
2168 2168 1 0 -0.7912165176727628 25.82396526251748 0 0 0 0
2525 2525 1 0 -0.793508672137289 27.33767705726814 0 0 0 0
2172 2172 1 0 1.7255575016251559 25.824835233460036 0 0 0 0
2529 2529 1 0 1.7140813072805798 27.27112994811914 0 0 0 0
2176 2176 1 0 4.253906495660475 25.85557461416702 0 0 0 0
2533 2533 1 0 4.245459964181894 27.293403010512193 0 0 0 0
2180 2180 1 0 6.78893676886392 25.868542597895527 0 0 0 0
2537 2537 1 0 6.799101517122033 27.32580360105506 0 0 0 0
2184 2184 1 0 9.36826893572971 25.843789486852867 0 0 0 0
2541 2541 1 0 9.374613456250222 27.313807459186393 0 0 0 0
2188 2188 1 0 11.886582222895512 25.851309618174845 0 0 0 0
2545 2545 1 0 11.889450693484594 27.296154759781686 0 0 0 0
2192 2192 1 0 14.4097210852198 25.84180087244779 0 0 0 0
2549 2549 1 0 14.400725674358814 27.296909069749603 0 0 0 0
2196 2196 1 0 16.907268738253315 25.853716497408506 0 0 0 0
2553 2553 1 0 16.9043056488479 27.316869551384006 0 0 0 0
2200 2200 1 0 19.4595450780328 25.830330542675753 0 0 0 0
2557 2557 1 0 19.4504486179864 27.324297555729686 0 0 0 0
2204 2204 1 0 21.987538840801243 25.801943657447794 0 0 0 0
2561 2561 1 0 21.95535956628719 27.322599535686802 0 0 0 0
2522 2522 1 0 -4.6163803893984525 28.04510728703667 0 0 0 0
2523 2523 1 0 -4.628177212776503 29.483687445037084 0 0 0 0
2526 2526 1 0 -2.0665043908487495 28.068664212734873 0 0 0 0
2527 2527 1 0 -2.0948131605224547 29.511372722890655 0 0 0 0
2530 2530 1 0 0.44183591901523656 28.051235474002922 0 0 0 0
2531 2531 1 0 0.4692633131351629 29.49831838333092 0 0 0 0
2534 2534 1 0 2.982538556054674 27.996616102357102 0 0 0 0
2535 2535 1 0 2.9813526942744 29.493105738093718 0 0 0 0
2538 2538 1 0 5.551162977284665 28.058581615394424 0 0 0 0
2539 2539 1 0 5.508871167604914 29.46065708562643 0 0 0 0
2542 2542 1 0 8.0629005109993 28.061109658205474 0 0 0 0
2543 2543 1 0 8.093409838262145 29.481629749973997 0 0 0 0
2546 2546 1 0 10.604566778277107 28.025466610514172 0 0 0 0
2547 2547 1 0 10.613444385742351 29.48577615024022 0 0 0 0
2550 2550 1 0 13.13936914066296 27.98661533758605 0 0 0 0
2551 2551 1 0 13.165184867178155 29.472721132885304 0 0 0 0
2554 2554 1 0 15.666749294097503 28.077495760666075 0 0 0 0
2555 2555 1 0 15.640977967218763 29.49969453364784 0 0 0 0
2558 2558 1 0 18.211333934103603 28.03010275137152 0 0 0 0
2559 2559 1 0 18.195383141206953 29.497987766428146 0 0 0 0
2562 2562 1 0 20.691742739241292 28.029506352831827 0 0 0 0
2563 2563 1 0 20.713713164693342 29.479627271750942 0 0 0 0
2566 2566 1 0 23.226507833318664 28.041573063025826 0 0 0 0
2567 2567 1 0 23.243420298075613 29.548136978824907 0 0 0 0
2524 2524 1 0 -3.3702069840498776 30.216621228328826 0 0 0 0
2881 2881 1 0 -3.336669801257675 31.67193318347656 0 0 0 0
2528 2528 1 0 -0.8256415188450363 30.273443494580583 0 0 0 0
2885 2885 1 0 -0.8026421766090714 31.73004406892713 0 0 0 0
2532 2532 1 0 1.715271857653244 30.232842417056503 0 0 0 0
2889 2889 1 0 1.721468358258746 31.711235967428472 0 0 0 0
2536 2536 1 0 4.273614268228666 30.194865416340598 0 0 0 0
2893 2893 1 0 4.244279258540999 31.699639211033578 0 0 0 0
2540 2540 1 0 6.768085924144497 30.19319737779734 0 0 0 0
2897 2897 1 0 6.767379190968038 31.648266450841582 0 0 0 0
2544 2544 1 0 9.351686684426932 30.230576389211606 0 0 0 0
2901 2901 1 0 9.331000682282854 31.685614135210855 0 0 0 0
2548 2548 1 0 11.89517617191305 30.20153874821183 0 0 0 0
2905 2905 1 0 11.862131530724302 31.668903173910067 0 0 0 0
2552 2552 1 0 14.423829847462716 30.19454878103688 0 0 0 0
2909 2909 1 0 14.370491993508878 31.69345791066882 0 0 0 0
2556 2556 1 0 16.91026792017784 30.257115957329738 0 0 0 0
2913 2913 1 0 16.888517894363197 31.716469535078872 0 0 0 0
2560 2560 1 0 19.450465726325092 30.247560567245642 0 0 0 0
2917 2917 1 0 19.484912643916406 31.698752128073956 0 0 0 0
2564 2564 1 0 21.980351048181348 30.247853831177665 0 0 0 0
2921 2921 1 0 21.95717432846291 31.69547185808465 0 0 0 0
2883 2883 1 0 -4.570456477029523 33.82616430810708 0 0 0 0
2882 2882 1 0 -4.587066886257155 32.37889201143451 0 0 0 0
2886 2886 1 0 -2.0798306761246033 32.43908436403891 0 0 0 0
2887 2887 1 0 -2.061328497622026 33.89845129822789 0 0 0 0
2890 2890 1 0 0.45718908034611516 32.45781275777932 0 0 0 0
2891 2891 1 0 0.45618949590383817 33.90564112691501 0 0 0 0
2894 2894 1 0 3.028661766483533 32.44721638289369 0 0 0 0
2895 2895 1 0 2.9986345248169073 33.921209278320354 0 0 0 0
2898 2898 1 0 5.489157612040652 32.39056172212689 0 0 0 0
2899 2899 1 0 5.54773992471187 33.8913271469923 0 0 0 0
2902 2902 1 0 8.04188921949948 32.38541493602274 0 0 0 0
2903 2903 1 0 8.064230444515232 33.85412095469418 0 0 0 0
2907 2907 1 0 10.61587240821972 33.920237168728036 0 0 0 0
2906 2906 1 0 10.605395030994593 32.38711205540779 0 0 0 0
2910 2910 1 0 13.099120984331122 32.44194660696947 0 0 0 0
2911 2911 1 0 13.080656723804331 33.877935917722645 0 0 0 0
2914 2914 1 0 15.62745925284409 32.449961708089184 0 0 0 0
2915 2915 1 0 15.637856610896812 33.8876670343924 0 0 0 0
2918 2918 1 0 18.17318236616174 32.435472187535225 0 0 0 0
2919 2919 1 0 18.119315343100915 33.90101788313721 0 0 0 0
2922 2922 1 0 20.688982845181844 32.43947046974475 0 0 0 0
2923 2923 1 0 20.686343845153633 33.902124694874075 0 0 0 0
2926 2926 1 0 23.2137992413748 32.4503114968857 0 0 0 0
2927 2927 1 0 23.204111424324925 33.91829149543944 0 0 0 0
2884 2884 1 0 -3.3137890562749552 34.585220804115615 0 0 0 0
3241 3241 1 0 -3.371329885173163 36.02396694244431 0 0 0 0
2888 2888 1 0 -0.7865296406576348 34.63859626523623 0 0 0 0
3245 3245 1 0 -0.767815469376115 36.052501420714094 0 0 0 0
2892 2892 1 0 1.7354177913109234 34.644808504955684 0 0 0 0
3249 3249 1 0 1.7337776146789592 36.1033201128884 0 0 0 0
2896 2896 1 0 4.267104111064642 34.68191228528507 0 0 0 0
3253 3253 1 0 4.249729529215257 36.10994468312599 0 0 0 0
2900 2900 1 0 6.813770801828735 34.548928900250324 0 0 0 0
3257 3257 1 0 6.783720149472792 36.091252244986045 0 0 0 0
2904 2904 1 0 9.318438998787437 34.593717767020586 0 0 0 0
3261 3261 1 0 9.296108281895158 36.0788065199149 0 0 0 0
2908 2908 1 0 11.850936513564061 34.64285084649852 0 0 0 0
3265 3265 1 0 11.857470243912097 36.06943314126338 0 0 0 0
2912 2912 1 0 14.36525116365575 34.66910038518315 0 0 0 0
3269 3269 1 0 14.377446609712528 36.096194830137954 0 0 0 0
2916 2916 1 0 16.915270288445086 34.614777102667276 0 0 0 0
3273 3273 1 0 16.92478978368797 36.10885199751597 0 0 0 0
2920 2920 1 0 19.428032754798082 34.64977568813233 0 0 0 0
3277 3277 1 0 19.432191433167713 36.07184430201352 0 0 0 0
2924 2924 1 0 21.950129462705856 34.61642220844922 0 0 0 0
3281 3281 1 0 21.94957359202658 36.098329006949456 0 0 0 0
3243 3243 1 0 -4.615445856467425 38.262500095077066 0 0 0 0
4721 4721 1 0 22.031924716309682 53.65115296593079 0 0 0 0
3246 3246 1 0 -2.0749465095417405 36.80046828805297 0 0 0 0
3247 3247 1 0 -2.104910381631716 38.2813229626906 0 0 0 0
3250 3250 1 0 0.4553737938619937 36.78103327365444 0 0 0 0
3251 3251 1 0 0.43840017635643846 38.25716737398093 0 0 0 0
3254 3254 1 0 3.0245550098514036 36.849665198764356 0 0 0 0
3255 3255 1 0 3.0178428644621933 38.339372254906465 0 0 0 0
3258 3258 1 0 5.514557406030873 36.83112328632743 0 0 0 0
3259 3259 1 0 5.5196234548528675 38.28899238128101 0 0 0 0
3262 3262 1 0 8.04841834604602 36.86441838514045 0 0 0 0
3263 3263 1 0 8.075935084520966 38.339035780690146 0 0 0 0
3266 3266 1 0 10.56480721463155 36.830812970325496 0 0 0 0
3267 3267 1 0 10.587286704737119 38.29539935112915 0 0 0 0
3270 3270 1 0 13.112508538625661 36.80858285458701 0 0 0 0
3271 3271 1 0 13.058391855212768 38.3039470987016 0 0 0 0
3274 3274 1 0 15.644996898893623 36.8428472204658 0 0 0 0
3275 3275 1 0 15.6575848567417 38.32835618619398 0 0 0 0
3278 3278 1 0 18.163835182835484 36.840785331449574 0 0 0 0
3279 3279 1 0 18.167871982028235 38.28601986242574 0 0 0 0
3282 3282 1 0 20.659364821479308 36.81401311139396 0 0 0 0
3283 3283 1 0 20.63720651399955 38.329954477452056 0 0 0 0
3286 3286 1 0 23.191988611404224 36.80611390169731 0 0 0 0
3287 3287 1 0 23.190067312399915 38.25931769942071 0 0 0 0
3244 3244 1 0 -3.3551103411336918 38.99482914128988 0 0 0 0
3601 3601 1 0 -3.353089478108338 40.50845700824805 0 0 0 0
3248 3248 1 0 -0.8283882603277162 39.00626506984337 0 0 0 0
3605 3605 1 0 -0.8031290486127003 40.50317947780405 0 0 0 0
3252 3252 1 0 1.722587693681855 39.04896196472685 0 0 0 0
3609 3609 1 0 1.7031046092856457 40.501684744226594 0 0 0 0
3256 3256 1 0 4.285941428294585 39.02544031967058 0 0 0 0
3613 3613 1 0 4.2852025489134515 40.49039229698271 0 0 0 0
3260 3260 1 0 6.815316569606098 39.01631040024417 0 0 0 0
3617 3617 1 0 6.820502566960231 40.49369005676924 0 0 0 0
3264 3264 1 0 9.353597691849927 39.04629143632821 0 0 0 0
3621 3621 1 0 9.362051988647197 40.49800038992441 0 0 0 0
3268 3268 1 0 11.845730596394269 39.01235176824091 0 0 0 0
3625 3625 1 0 11.855308687222813 40.461194414891 0 0 0 0
3272 3272 1 0 14.393251752042616 39.05799808401751 0 0 0 0
3629 3629 1 0 14.400657285357774 40.503062042845336 0 0 0 0
3276 3276 1 0 16.881436947326975 39.01714883123128 0 0 0 0
3633 3633 1 0 16.89193940724084 40.53121751460037 0 0 0 0
3280 3280 1 0 19.44802435107514 39.023435872815675 0 0 0 0
3637 3637 1 0 19.405201972686836 40.50936163817915 0 0 0 0
3284 3284 1 0 21.94381183071375 39.07077053140095 0 0 0 0
3641 3641 1 0 21.945997533044466 40.51204344835546 0 0 0 0
2183 2183 1 0 8.066871754196177 25.161894976134437 0 0 0 0
3602 3602 1 0 -4.58210542695426 41.19878617709267 0 0 0 0
3606 3606 1 0 -2.101656543438603 41.238478556794966 0 0 0 0
3607 3607 1 0 -2.1275399777902213 42.69549592611162 0 0 0 0
3610 3610 1 0 0.46086397076389396 41.215881123485794 0 0 0 0
3611 3611 1 0 0.4584243613386345 42.7047477237664 0 0 0 0
3614 3614 1 0 3.0044246223457627 41.231991223422554 0 0 0 0
3615 3615 1 0 2.961891245074133 42.70934891776883 0 0 0 0
3618 3618 1 0 5.540803788113422 41.227924370495174 0 0 0 0
3619 3619 1 0 5.519662216592124 42.69565457814174 0 0 0 0
3622 3622 1 0 8.049070298017066 41.224590750557866 0 0 0 0
3623 3623 1 0 8.071587495981948 42.72034133950077 0 0 0 0
3626 3626 1 0 10.597056528358152 41.20319825867789 0 0 0 0
3627 3627 1 0 10.58148330451264 42.64314588661314 0 0 0 0
3630 3630 1 0 13.12698465880177 41.24176529268504 0 0 0 0
3631 3631 1 0 13.126162072281502 42.70470277826352 0 0 0 0
3634 3634 1 0 15.642860314201808 41.253215571865674 0 0 0 0
3635 3635 1 0 15.628395015168891 42.72313939264116 0 0 0 0
3638 3638 1 0 18.110293874646544 41.265232514702184 0 0 0 0
3639 3639 1 0 18.09953567017832 42.724663097398114 0 0 0 0
3642 3642 1 0 20.657319500763997 41.30334955639231 0 0 0 0
3643 3643 1 0 20.67802384729451 42.74791225893773 0 0 0 0
3646 3646 1 0 23.209806350087305 41.194516028565864 0 0 0 0
3647 3647 1 0 23.23606647818085 42.697277338907746 0 0 0 0
3604 3604 1 0 -3.3846817420399686 43.41717364670525 0 0 0 0
3961 3961 1 0 -3.4007280995930227 44.88371512079406 0 0 0 0
3608 3608 1 0 -0.7650007800950327 43.41773697550653 0 0 0 0
3965 3965 1 0 -0.8237478712800619 44.87688421000403 0 0 0 0
3612 3612 1 0 1.7097983286932923 43.388487042319255 0 0 0 0
3969 3969 1 0 1.6944417998777421 44.86195749596511 0 0 0 0
3616 3616 1 0 4.222404237218182 43.42752493381607 0 0 0 0
3973 3973 1 0 4.236440208188201 44.88717661954746 0 0 0 0
3620 3620 1 0 6.800440027024353 43.4271627628886 0 0 0 0
3977 3977 1 0 6.771764697206573 44.91677573921927 0 0 0 0
3624 3624 1 0 9.336139661425019 43.404876693056025 0 0 0 0
3981 3981 1 0 9.291650238511256 44.87730511358288 0 0 0 0
3628 3628 1 0 11.828688836372425 43.37505798097761 0 0 0 0
3985 3985 1 0 11.830775558970004 44.94513849936155 0 0 0 0
3632 3632 1 0 14.386382694987969 43.42704403127709 0 0 0 0
3989 3989 1 0 14.298727021559774 44.89483110450484 0 0 0 0
3636 3636 1 0 16.839150502620754 43.444780476219975 0 0 0 0
3993 3993 1 0 16.85645947471964 44.95716087855975 0 0 0 0
3640 3640 1 0 19.381172399243788 43.48354933129036 0 0 0 0
3997 3997 1 0 19.368747602952013 44.93438746571151 0 0 0 0
3644 3644 1 0 21.950243441852304 43.4717186679513 0 0 0 0
4001 4001 1 0 21.920974217957635 44.93659787998364 0 0 0 0
4364 4364 1 0 22.032694418086347 52.23561673886332 0 0 0 0
4360 4360 1 0 19.423180810199618 52.23960361067566 0 0 0 0
3966 3966 1 0 -2.107072889516034 45.598914413442735 0 0 0 0
3967 3967 1 0 -2.1028535660280716 47.06814763421309 0 0 0 0